  -6.0000000000000000          0.0000000000000000     
  -5.9930000000000003          0.0000000000000000     
  -5.9859999999999998          0.0000000000000000     
  -5.9790000000000001          0.0000000000000000     
  -5.9720000000000004          0.0000000000000000     
  -5.9649999999999999          0.0000000000000000     
  -5.9580000000000002          0.0000000000000000     
  -5.9509999999999996          0.0000000000000000     
  -5.9440000000000000          0.0000000000000000     
  -5.9370000000000003          0.0000000000000000     
  -5.9299999999999997          0.0000000000000000     
  -5.9230000000000000          0.0000000000000000     
  -5.9160000000000004          0.0000000000000000     
  -5.9089999999999998          0.0000000000000000     
  -5.9020000000000001          0.0000000000000000     
  -5.8949999999999996          0.0000000000000000     
  -5.8879999999999999          0.0000000000000000     
  -5.8810000000000002          0.0000000000000000     
  -5.8739999999999997          0.0000000000000000     
  -5.8670000000000000          0.0000000000000000     
  -5.8600000000000003          0.0000000000000000     
  -5.8529999999999998          0.0000000000000000     
  -5.8460000000000001          0.0000000000000000     
  -5.8390000000000004          0.0000000000000000     
  -5.8319999999999999          0.0000000000000000     
  -5.8250000000000002          0.0000000000000000     
  -5.8179999999999996          0.0000000000000000     
  -5.8109999999999999          0.0000000000000000     
  -5.8040000000000003          0.0000000000000000     
  -5.7969999999999997          0.0000000000000000     
  -5.7900000000000000          0.0000000000000000     
  -5.7830000000000004          0.0000000000000000     
  -5.7759999999999998          0.0000000000000000     
  -5.7690000000000001          0.0000000000000000     
  -5.7619999999999996          0.0000000000000000     
  -5.7549999999999999          0.0000000000000000     
  -5.7480000000000002          0.0000000000000000     
  -5.7409999999999997          0.0000000000000000     
  -5.7340000000000000          0.0000000000000000     
  -5.7270000000000003          0.0000000000000000     
  -5.7199999999999998          0.0000000000000000     
  -5.7130000000000001          0.0000000000000000     
  -5.7060000000000004          0.0000000000000000     
  -5.6989999999999998          0.0000000000000000     
  -5.6920000000000002          0.0000000000000000     
  -5.6849999999999996          0.0000000000000000     
  -5.6779999999999999          0.0000000000000000     
  -5.6710000000000003          0.0000000000000000     
  -5.6639999999999997          0.0000000000000000     
  -5.6570000000000000          0.0000000000000000     
  -5.6500000000000004          0.0000000000000000     
  -5.6429999999999998          0.0000000000000000     
  -5.6360000000000001          0.0000000000000000     
  -5.6289999999999996          0.0000000000000000     
  -5.6219999999999999          0.0000000000000000     
  -5.6150000000000002          0.0000000000000000     
  -5.6079999999999997          0.0000000000000000     
  -5.6010000000000000          0.0000000000000000     
  -5.5940000000000003          0.0000000000000000     
  -5.5869999999999997          0.0000000000000000     
  -5.5800000000000001          0.0000000000000000     
  -5.5730000000000004          0.0000000000000000     
  -5.5659999999999998          0.0000000000000000     
  -5.5590000000000002          0.0000000000000000     
  -5.5519999999999996          0.0000000000000000     
  -5.5449999999999999          0.0000000000000000     
  -5.5380000000000003          0.0000000000000000     
  -5.5309999999999997          0.0000000000000000     
  -5.5240000000000000          0.0000000000000000     
  -5.5170000000000003          0.0000000000000000     
  -5.5099999999999998          0.0000000000000000     
  -5.5030000000000001          0.0000000000000000     
  -5.4960000000000004          0.0000000000000000     
  -5.4889999999999999          0.0000000000000000     
  -5.4820000000000002          0.0000000000000000     
  -5.4749999999999996          0.0000000000000000     
  -5.4680000000000000          0.0000000000000000     
  -5.4610000000000003          0.0000000000000000     
  -5.4539999999999997          0.0000000000000000     
  -5.4470000000000001          0.0000000000000000     
  -5.4399999999999995          0.0000000000000000     
  -5.4329999999999998          0.0000000000000000     
  -5.4260000000000002          0.0000000000000000     
  -5.4190000000000005          0.0000000000000000     
  -5.4119999999999999          0.0000000000000000     
  -5.4050000000000002          0.0000000000000000     
  -5.3979999999999997          0.0000000000000000     
  -5.3910000000000000          0.0000000000000000     
  -5.3840000000000003          0.0000000000000000     
  -5.3769999999999998          0.0000000000000000     
  -5.3700000000000001          0.0000000000000000     
  -5.3629999999999995          0.0000000000000000     
  -5.3559999999999999          0.0000000000000000     
  -5.3490000000000002          0.0000000000000000     
  -5.3419999999999996          0.0000000000000000     
  -5.3350000000000000          0.0000000000000000     
  -5.3280000000000003          0.0000000000000000     
  -5.3209999999999997          0.0000000000000000     
  -5.3140000000000001          0.0000000000000000     
  -5.3070000000000004          0.0000000000000000     
  -5.2999999999999998          0.0000000000000000     
  -5.2930000000000001          0.0000000000000000     
  -5.2859999999999996          0.0000000000000000     
  -5.2789999999999999          0.0000000000000000     
  -5.2720000000000002          0.0000000000000000     
  -5.2649999999999997          0.0000000000000000     
  -5.2580000000000000          0.0000000000000000     
  -5.2510000000000003          0.0000000000000000     
  -5.2439999999999998          0.0000000000000000     
  -5.2370000000000001          0.0000000000000000     
  -5.2300000000000004          0.0000000000000000     
  -5.2229999999999999          0.0000000000000000     
  -5.2160000000000002          0.0000000000000000     
  -5.2089999999999996          0.0000000000000000     
  -5.2020000000000000          0.0000000000000000     
  -5.1950000000000003          0.0000000000000000     
  -5.1879999999999997          0.0000000000000000     
  -5.1810000000000000          0.0000000000000000     
  -5.1739999999999995          0.0000000000000000     
  -5.1669999999999998          0.0000000000000000     
  -5.1600000000000001          0.0000000000000000     
  -5.1530000000000005          0.0000000000000000     
  -5.1459999999999999          0.0000000000000000     
  -5.1390000000000002          0.0000000000000000     
  -5.1319999999999997          0.0000000000000000     
  -5.1250000000000000          0.0000000000000000     
  -5.1180000000000003          0.0000000000000000     
  -5.1109999999999998          0.0000000000000000     
  -5.1040000000000001          0.0000000000000000     
  -5.0969999999999995          0.0000000000000000     
  -5.0899999999999999          0.0000000000000000     
  -5.0830000000000002          0.0000000000000000     
  -5.0759999999999996          0.0000000000000000     
  -5.0690000000000000          0.0000000000000000     
  -5.0620000000000003          0.0000000000000000     
  -5.0549999999999997          0.0000000000000000     
  -5.0480000000000000          0.0000000000000000     
  -5.0410000000000004          0.0000000000000000     
  -5.0339999999999998          0.0000000000000000     
  -5.0270000000000001          0.0000000000000000     
  -5.0199999999999996          0.0000000000000000     
  -5.0129999999999999          0.0000000000000000     
  -5.0060000000000002          0.0000000000000000     
  -4.9989999999999997          0.0000000000000000     
  -4.9920000000000000          0.0000000000000000     
  -4.9849999999999994          0.0000000000000000     
  -4.9779999999999998          0.0000000000000000     
  -4.9710000000000001          0.0000000000000000     
  -4.9640000000000004          0.0000000000000000     
  -4.9569999999999999          0.0000000000000000     
  -4.9500000000000002          0.0000000000000000     
  -4.9429999999999996          0.0000000000000000     
  -4.9359999999999999          0.0000000000000000     
  -4.9290000000000003          0.0000000000000000     
  -4.9219999999999997          0.0000000000000000     
  -4.9150000000000000          0.0000000000000000     
  -4.9079999999999995          0.0000000000000000     
  -4.9009999999999998          0.0000000000000000     
  -4.8940000000000001          0.0000000000000000     
  -4.8870000000000005          0.0000000000000000     
  -4.8799999999999999          0.0000000000000000     
  -4.8730000000000002          0.0000000000000000     
  -4.8659999999999997          0.0000000000000000     
  -4.8590000000000000          0.0000000000000000     
  -4.8520000000000003          0.0000000000000000     
  -4.8449999999999998          0.0000000000000000     
  -4.8380000000000001          0.0000000000000000     
  -4.8309999999999995          0.0000000000000000     
  -4.8239999999999998          0.0000000000000000     
  -4.8170000000000002          0.0000000000000000     
  -4.8100000000000005          0.0000000000000000     
  -4.8029999999999999          0.0000000000000000     
  -4.7960000000000003          0.0000000000000000     
  -4.7889999999999997          0.0000000000000000     
  -4.7820000000000000          0.0000000000000000     
  -4.7750000000000004          0.0000000000000000     
  -4.7679999999999998          0.0000000000000000     
  -4.7610000000000001          0.0000000000000000     
  -4.7539999999999996          0.0000000000000000     
  -4.7469999999999999          0.0000000000000000     
  -4.7400000000000002          0.0000000000000000     
  -4.7329999999999997          0.0000000000000000     
  -4.7260000000000000          0.0000000000000000     
  -4.7190000000000003          0.0000000000000000     
  -4.7119999999999997          0.0000000000000000     
  -4.7050000000000001          0.0000000000000000     
  -4.6980000000000004          0.0000000000000000     
  -4.6909999999999998          0.0000000000000000     
  -4.6840000000000002          0.0000000000000000     
  -4.6769999999999996          0.0000000000000000     
  -4.6699999999999999          0.0000000000000000     
  -4.6630000000000003          0.0000000000000000     
  -4.6559999999999997          0.0000000000000000     
  -4.6490000000000000          0.0000000000000000     
  -4.6419999999999995          0.0000000000000000     
  -4.6349999999999998          0.0000000000000000     
  -4.6280000000000001          0.0000000000000000     
  -4.6210000000000004          0.0000000000000000     
  -4.6139999999999999          0.0000000000000000     
  -4.6070000000000002          0.0000000000000000     
  -4.5999999999999996          0.0000000000000000     
  -4.5930000000000000          0.0000000000000000     
  -4.5860000000000003          0.0000000000000000     
  -4.5789999999999997          0.0000000000000000     
  -4.5720000000000001          0.0000000000000000     
  -4.5649999999999995          0.0000000000000000     
  -4.5579999999999998          0.0000000000000000     
  -4.5510000000000002          0.0000000000000000     
  -4.5440000000000005          0.0000000000000000     
  -4.5369999999999999          0.0000000000000000     
  -4.5300000000000002          0.0000000000000000     
  -4.5229999999999997          0.0000000000000000     
  -4.5160000000000000          0.0000000000000000     
  -4.5090000000000003          0.0000000000000000     
  -4.5019999999999998          0.0000000000000000     
  -4.4950000000000001          0.0000000000000000     
  -4.4879999999999995          0.0000000000000000     
  -4.4809999999999999          0.0000000000000000     
  -4.4740000000000002          0.0000000000000000     
  -4.4669999999999996          0.0000000000000000     
  -4.4600000000000000          0.0000000000000000     
  -4.4530000000000003          0.0000000000000000     
  -4.4459999999999997          0.0000000000000000     
  -4.4390000000000001          0.0000000000000000     
  -4.4320000000000004          0.0000000000000000     
  -4.4249999999999998          0.0000000000000000     
  -4.4180000000000001          0.0000000000000000     
  -4.4109999999999996          0.0000000000000000     
  -4.4039999999999999          0.0000000000000000     
  -4.3970000000000002          0.0000000000000000     
  -4.3899999999999997          0.0000000000000000     
  -4.3830000000000000          0.0000000000000000     
  -4.3759999999999994          0.0000000000000000     
  -4.3689999999999998          0.0000000000000000     
  -4.3620000000000001          0.0000000000000000     
  -4.3550000000000004          0.0000000000000000     
  -4.3479999999999999          0.0000000000000000     
  -4.3410000000000002          0.0000000000000000     
  -4.3339999999999996          0.0000000000000000     
  -4.3270000000000000          0.0000000000000000     
  -4.3200000000000003          0.0000000000000000     
  -4.3129999999999997          0.0000000000000000     
  -4.3060000000000000          0.0000000000000000     
  -4.2989999999999995          0.0000000000000000     
  -4.2919999999999998          0.0000000000000000     
  -4.2850000000000001          0.0000000000000000     
  -4.2780000000000005          0.0000000000000000     
  -4.2709999999999999          0.0000000000000000     
  -4.2640000000000002          0.0000000000000000     
  -4.2569999999999997          0.0000000000000000     
  -4.2500000000000000          0.0000000000000000     
  -4.2430000000000003          0.0000000000000000     
  -4.2359999999999998          0.0000000000000000     
  -4.2290000000000001          0.0000000000000000     
  -4.2219999999999995          0.0000000000000000     
  -4.2149999999999999          0.0000000000000000     
  -4.2080000000000002          0.0000000000000000     
  -4.2010000000000005          0.0000000000000000     
  -4.1940000000000000          0.0000000000000000     
  -4.1870000000000003          0.0000000000000000     
  -4.1799999999999997          0.0000000000000000     
  -4.1730000000000000          0.0000000000000000     
  -4.1660000000000004          0.0000000000000000     
  -4.1589999999999998          0.0000000000000000     
  -4.1520000000000001          0.0000000000000000     
  -4.1449999999999996          0.0000000000000000     
  -4.1379999999999999          0.0000000000000000     
  -4.1310000000000002          0.0000000000000000     
  -4.1239999999999997          0.0000000000000000     
  -4.1170000000000000          0.0000000000000000     
  -4.1099999999999994          0.0000000000000000     
  -4.1029999999999998          0.0000000000000000     
  -4.0960000000000001          0.0000000000000000     
  -4.0890000000000004          0.0000000000000000     
  -4.0819999999999999          0.0000000000000000     
  -4.0750000000000002          0.0000000000000000     
  -4.0679999999999996          0.0000000000000000     
  -4.0609999999999999          0.0000000000000000     
  -4.0540000000000003          0.0000000000000000     
  -4.0469999999999997          0.0000000000000000     
  -4.0400000000000000          0.0000000000000000     
  -4.0329999999999995          0.0000000000000000     
  -4.0259999999999998          0.0000000000000000     
  -4.0190000000000001          0.0000000000000000     
  -4.0120000000000005          0.0000000000000000     
  -4.0049999999999999          0.0000000000000000     
  -3.9979999999999998          0.0000000000000000     
  -3.9910000000000001          0.0000000000000000     
  -3.9840000000000000          0.0000000000000000     
  -3.9769999999999999          0.0000000000000000     
  -3.9699999999999998          0.0000000000000000     
  -3.9630000000000001          0.0000000000000000     
  -3.9560000000000000          0.0000000000000000     
  -3.9489999999999998          0.0000000000000000     
  -3.9420000000000002          0.0000000000000000     
  -3.9350000000000001          0.0000000000000000     
  -3.9279999999999999          0.0000000000000000     
  -3.9209999999999998          0.0000000000000000     
  -3.9140000000000001          0.0000000000000000     
  -3.9070000000000000          0.0000000000000000     
  -3.8999999999999999          0.0000000000000000     
  -3.8929999999999998          0.0000000000000000     
  -3.8860000000000001          0.0000000000000000     
  -3.8790000000000000          0.0000000000000000     
  -3.8719999999999999          0.0000000000000000     
  -3.8649999999999998          0.0000000000000000     
  -3.8580000000000001          0.0000000000000000     
  -3.8510000000000000          0.0000000000000000     
  -3.8439999999999999          0.0000000000000000     
  -3.8369999999999997          0.0000000000000000     
  -3.8300000000000001          0.0000000000000000     
  -3.8230000000000000          0.0000000000000000     
  -3.8159999999999998          0.0000000000000000     
  -3.8090000000000002          0.0000000000000000     
  -3.8020000000000000          0.0000000000000000     
  -3.7949999999999999          0.0000000000000000     
  -3.7879999999999998          0.0000000000000000     
  -3.7810000000000001          0.0000000000000000     
  -3.7740000000000000          0.0000000000000000     
  -3.7669999999999999          0.0000000000000000     
  -3.7599999999999998          0.0000000000000000     
  -3.7530000000000001          0.0000000000000000     
  -3.7460000000000000          0.0000000000000000     
  -3.7389999999999999          0.0000000000000000     
  -3.7319999999999998          0.0000000000000000     
  -3.7250000000000001          0.0000000000000000     
  -3.7180000000000000          0.0000000000000000     
  -3.7109999999999999          0.0000000000000000     
  -3.7039999999999997          0.0000000000000000     
  -3.6970000000000001          0.0000000000000000     
  -3.6899999999999999          0.0000000000000000     
  -3.6829999999999998          0.0000000000000000     
  -3.6760000000000002          0.0000000000000000     
  -3.6690000000000000          0.0000000000000000     
  -3.6619999999999999          0.0000000000000000     
  -3.6549999999999998          0.0000000000000000     
  -3.6480000000000001          0.0000000000000000     
  -3.6410000000000000          0.0000000000000000     
  -3.6339999999999999          0.0000000000000000     
  -3.6269999999999998          0.0000000000000000     
  -3.6200000000000001          0.0000000000000000     
  -3.6130000000000000          0.0000000000000000     
  -3.6059999999999999          0.0000000000000000     
  -3.5989999999999998          0.0000000000000000     
  -3.5920000000000001          0.0000000000000000     
  -3.5850000000000000          0.0000000000000000     
  -3.5779999999999998          0.0000000000000000     
  -3.5709999999999997          0.0000000000000000     
  -3.5640000000000001          0.0000000000000000     
  -3.5569999999999999          0.0000000000000000     
  -3.5499999999999998          0.0000000000000000     
  -3.5430000000000001          0.0000000000000000     
  -3.5360000000000000          0.0000000000000000     
  -3.5289999999999999          0.0000000000000000     
  -3.5219999999999998          0.0000000000000000     
  -3.5150000000000001          0.0000000000000000     
  -3.5080000000000000          0.0000000000000000     
  -3.5009999999999999          0.0000000000000000     
  -3.4939999999999998          0.0000000000000000     
  -3.4870000000000001          0.0000000000000000     
  -3.4800000000000000          0.0000000000000000     
  -3.4729999999999999          0.0000000000000000     
  -3.4659999999999997          0.0000000000000000     
  -3.4590000000000001          0.0000000000000000     
  -3.4520000000000000          0.0000000000000000     
  -3.4449999999999998          0.0000000000000000     
  -3.4380000000000002          0.0000000000000000     
  -3.4310000000000000          0.0000000000000000     
  -3.4239999999999999          0.0000000000000000     
  -3.4169999999999998          0.0000000000000000     
  -3.4100000000000001          0.0000000000000000     
  -3.4030000000000000          0.0000000000000000     
  -3.3959999999999999          0.0000000000000000     
  -3.3889999999999998          0.0000000000000000     
  -3.3820000000000001          0.0000000000000000     
  -3.3750000000000000          0.0000000000000000     
  -3.3679999999999999          0.0000000000000000     
  -3.3609999999999998          0.0000000000000000     
  -3.3540000000000001          0.0000000000000000     
  -3.3470000000000000          0.0000000000000000     
  -3.3399999999999999          0.0000000000000000     
  -3.3329999999999997          0.0000000000000000     
  -3.3260000000000001          0.0000000000000000     
  -3.3190000000000000          0.0000000000000000     
  -3.3119999999999998          0.0000000000000000     
  -3.3050000000000002          0.0000000000000000     
  -3.2980000000000000          0.0000000000000000     
  -3.2909999999999999          0.0000000000000000     
  -3.2839999999999998          0.0000000000000000     
  -3.2770000000000001          0.0000000000000000     
  -3.2700000000000000          0.0000000000000000     
  -3.2629999999999999          0.0000000000000000     
  -3.2559999999999998          0.0000000000000000     
  -3.2490000000000001          0.0000000000000000     
  -3.2420000000000000          0.0000000000000000     
  -3.2349999999999999          0.0000000000000000     
  -3.2279999999999998          0.0000000000000000     
  -3.2210000000000001          0.0000000000000000     
  -3.2140000000000000          0.0000000000000000     
  -3.2069999999999999          0.0000000000000000     
  -3.1999999999999997          0.0000000000000000     
  -3.1930000000000001          0.0000000000000000     
  -3.1859999999999999          0.0000000000000000     
  -3.1789999999999998          0.0000000000000000     
  -3.1720000000000002          0.0000000000000000     
  -3.1650000000000000          0.0000000000000000     
  -3.1579999999999999          0.0000000000000000     
  -3.1509999999999998          0.0000000000000000     
  -3.1440000000000001          0.0000000000000000     
  -3.1370000000000000          0.0000000000000000     
  -3.1299999999999999          0.0000000000000000     
  -3.1229999999999998          0.0000000000000000     
  -3.1160000000000001          0.0000000000000000     
  -3.1090000000000000          0.0000000000000000     
  -3.1019999999999999          0.0000000000000000     
  -3.0949999999999998          0.0000000000000000     
  -3.0880000000000001          0.0000000000000000     
  -3.0810000000000000          0.0000000000000000     
  -3.0739999999999998          0.0000000000000000     
  -3.0669999999999997          0.0000000000000000     
  -3.0600000000000001          0.0000000000000000     
  -3.0529999999999999          0.0000000000000000     
  -3.0459999999999998          0.0000000000000000     
  -3.0390000000000001          0.0000000000000000     
  -3.0320000000000000          0.0000000000000000     
  -3.0249999999999999          0.0000000000000000     
  -3.0179999999999998          0.0000000000000000     
  -3.0110000000000001          0.0000000000000000     
  -3.0040000000000000          0.0000000000000000     
  -2.9969999999999999          0.0000000000000000     
  -2.9899999999999998          0.0000000000000000     
  -2.9830000000000001          0.0000000000000000     
  -2.9760000000000000          0.0000000000000000     
  -2.9689999999999999         -5.4792923156196480E-036
  -2.9619999999999997          3.5358523424303740E-035
  -2.9550000000000001          4.6104193042441611E-037
  -2.9480000000000000         -6.3381687813241782E-035
  -2.9409999999999998         -5.4196481707716504E-035
  -2.9339999999999997          5.1444639967410326E-035
  -2.9270000000000000          4.2397729352723857E-034
  -2.9199999999999999          4.4975739461052616E-035
  -2.9129999999999998         -8.4245146749675953E-034
  -2.9060000000000001         -6.9950666035959781E-034
  -2.8990000000000000          1.5992190312497982E-033
  -2.8919999999999999          1.3080148842046888E-033
  -2.8849999999999998          6.1625814301828961E-034
  -2.8780000000000001         -5.4023741299101731E-033
  -2.8710000000000000         -2.5849199806752488E-033
  -2.8639999999999999          4.7314572101323798E-033
  -2.8569999999999998          7.8058378112442207E-033
  -2.8500000000000001         -4.5546329011611423E-034
  -2.8430000000000000         -1.2713565456441448E-032
  -2.8359999999999999         -7.5073516892955649E-033
  -2.8289999999999997          9.3463814565012650E-033
  -2.8220000000000001          1.9779517031049634E-032
  -2.8149999999999999          3.5075567765003299E-033
  -2.8079999999999998         -2.2767566472523806E-032
  -2.8009999999999997         -2.4567774057829711E-032
  -2.7940000000000000          1.0153003169572303E-032
  -2.7869999999999999          4.6563426989867240E-032
  -2.7799999999999998          2.2248592425032110E-032
  -2.7730000000000001         -4.9040164479839429E-032
  -2.7660000000000000         -7.3912551323027085E-032
  -2.7589999999999999          1.3153922010079862E-033
  -2.7519999999999998          1.1365477028179119E-031
  -2.7450000000000001          1.0066189374387995E-031
  -2.7380000000000000         -7.1574085438856943E-032
  -2.7309999999999999         -2.1591447284320984E-031
  -2.7239999999999998         -9.5362952169156070E-032
  -2.7170000000000001          2.2711254695815618E-031
  -2.7100000000000000          3.5174769568717556E-031
  -2.7029999999999998         -8.4548117905763674E-033
  -2.6959999999999997         -5.2056119719270033E-031
  -2.6890000000000001         -4.6703495610725802E-031
  -2.6819999999999999          3.3203826487687801E-031
  -2.6749999999999998          9.8568398344343068E-031
  -2.6680000000000001          4.2006518204598003E-031
  -2.6610000000000000         -1.0443084137709912E-030
  -2.6539999999999999         -1.5687100400920008E-030
  -2.6469999999999998          6.5449530527823894E-032
  -2.6400000000000001          2.3218751635141234E-030
  -2.6330000000000000          2.0446529632824518E-030
  -2.6259999999999999         -1.4547485520711992E-030
  -2.6189999999999998         -4.2758094784569790E-030
  -2.6120000000000001         -1.8532434849092112E-030
  -2.6050000000000000          4.4161129521650384E-030
  -2.5979999999999999          6.7183748626460143E-030
  -2.5909999999999997         -1.2227768595124875E-031
  -2.5840000000000001         -9.6976703465886633E-030
  -2.5770000000000000         -8.7482119360637378E-030
  -2.5699999999999998          5.7565066229750633E-030
  -2.5629999999999997          1.7727135501935358E-029
  -2.5560000000000000          8.1172638285392620E-030
  -2.5489999999999999         -1.7678750810064914E-029
  -2.5419999999999998         -2.7726096951480363E-029
  -2.5350000000000001         -4.4606535475059977E-031
  -2.5280000000000000          3.8750839829038508E-029
  -2.5209999999999999          3.6168824177867603E-029
  -2.5139999999999998         -2.1432416948690387E-029
  -2.5070000000000001         -7.0534647718409550E-029
  -2.5000000000000000         -3.4506639541261507E-029
  -2.4929999999999999          6.7397033490292990E-029
  -2.4859999999999998          1.1009296920011765E-028
  -2.4790000000000001          6.4143553320387100E-030
  -2.4720000000000000         -1.4810649440666616E-028
  -2.4649999999999999         -1.4448372849715444E-028
  -2.4579999999999997          7.4475011672406147E-029
  -2.4510000000000001          2.6946630050419188E-028
  -2.4440000000000000          1.4271159755170052E-028
  -2.4369999999999998         -2.4418435571138577E-028
  -2.4299999999999997         -4.2128738161431861E-028
  -2.4230000000000000         -4.6144743910470625E-029
  -2.4159999999999999          5.4147206481854994E-028
  -2.4089999999999998          5.5807219767265662E-028
  -2.4020000000000001         -2.3919466008130289E-028
  -2.3950000000000000         -9.8861803672674366E-028
  -2.3879999999999999         -5.7146384005448319E-028
  -2.3809999999999998          8.4113773657772317E-028
  -2.3740000000000001          1.5528744626136618E-027
  -2.3670000000000000          2.5805231268297492E-028
  -2.3599999999999999         -1.8979281908218911E-027
  -2.3529999999999998         -2.0822941240716829E-027
  -2.3460000000000001          7.0591903459163262E-028
  -2.3390000000000000          3.4942021571614974E-027
  -2.3319999999999999          2.2149152179481077E-027
  -2.3249999999999997         -2.7588987372942012E-027
  -2.3180000000000001         -5.5337343968942350E-027
  -2.3109999999999999         -1.2732961082353280E-027
  -2.3039999999999998          6.3767883857792283E-027
  -2.2969999999999997          7.5290435929536329E-027
  -2.2900000000000000         -1.8194904777894872E-027
  -2.2829999999999999         -1.1866411445340471E-026
  -2.2759999999999998         -8.3051832839256412E-027
  -2.2690000000000001          8.5286848092929033E-027
  -2.2620000000000000          1.8962363865986367E-026
  -2.2549999999999999          5.6572218412379102E-027
  -2.2479999999999998         -2.0477798022220309E-026
  -2.2410000000000001         -2.6172378896169436E-026
  -2.2340000000000000          3.9212152738967470E-027
  -2.2269999999999999          3.8822472223646191E-026
  -2.2199999999999998          2.9870952873417252E-026
  -2.2130000000000001         -2.5201321874654018E-026
  -2.2060000000000000         -6.3014651516521048E-026
  -2.1989999999999998         -2.3261862644396541E-026
  -2.1919999999999997          6.3485729768929936E-026