  -6.0000000000000000          0.0000000000000000     
  -5.9930000000000003          0.0000000000000000     
  -5.9859999999999998          0.0000000000000000     
  -5.9790000000000001          0.0000000000000000     
  -5.9720000000000004          0.0000000000000000     
  -5.9649999999999999          0.0000000000000000     
  -5.9580000000000002          0.0000000000000000     
  -5.9509999999999996          0.0000000000000000     
  -5.9440000000000000          0.0000000000000000     
  -5.9370000000000003          0.0000000000000000     
  -5.9299999999999997          0.0000000000000000     
  -5.9230000000000000          0.0000000000000000     
  -5.9160000000000004          0.0000000000000000     
  -5.9089999999999998          0.0000000000000000     
  -5.9020000000000001          0.0000000000000000     
  -5.8949999999999996          0.0000000000000000     
  -5.8879999999999999          0.0000000000000000     
  -5.8810000000000002          0.0000000000000000     
  -5.8739999999999997          0.0000000000000000     
  -5.8670000000000000          0.0000000000000000     
  -5.8600000000000003          0.0000000000000000     
  -5.8529999999999998          0.0000000000000000     
  -5.8460000000000001          0.0000000000000000     
  -5.8390000000000004          0.0000000000000000     
  -5.8319999999999999          0.0000000000000000     
  -5.8250000000000002          0.0000000000000000     
  -5.8179999999999996          0.0000000000000000     
  -5.8109999999999999          0.0000000000000000     
  -5.8040000000000003          0.0000000000000000     
  -5.7969999999999997          0.0000000000000000     
  -5.7900000000000000          0.0000000000000000     
  -5.7830000000000004          0.0000000000000000     
  -5.7759999999999998          0.0000000000000000     
  -5.7690000000000001          0.0000000000000000     
  -5.7619999999999996          0.0000000000000000     
  -5.7549999999999999          0.0000000000000000     
  -5.7480000000000002          0.0000000000000000     
  -5.7409999999999997          0.0000000000000000     
  -5.7340000000000000          0.0000000000000000     
  -5.7270000000000003          0.0000000000000000     
  -5.7199999999999998          0.0000000000000000     
  -5.7130000000000001          0.0000000000000000     
  -5.7060000000000004          0.0000000000000000     
  -5.6989999999999998          0.0000000000000000     
  -5.6920000000000002          0.0000000000000000     
  -5.6849999999999996          0.0000000000000000     
  -5.6779999999999999          0.0000000000000000     
  -5.6710000000000003          0.0000000000000000     
  -5.6639999999999997          0.0000000000000000     
  -5.6570000000000000          0.0000000000000000     
  -5.6500000000000004          0.0000000000000000     
  -5.6429999999999998          0.0000000000000000     
  -5.6360000000000001          0.0000000000000000     
  -5.6289999999999996          0.0000000000000000     
  -5.6219999999999999          0.0000000000000000     
  -5.6150000000000002          0.0000000000000000     
  -5.6079999999999997          0.0000000000000000     
  -5.6010000000000000          0.0000000000000000     
  -5.5940000000000003          0.0000000000000000     
  -5.5869999999999997          0.0000000000000000     
  -5.5800000000000001          0.0000000000000000     
  -5.5730000000000004          0.0000000000000000     
  -5.5659999999999998          0.0000000000000000     
  -5.5590000000000002          0.0000000000000000     
  -5.5519999999999996          0.0000000000000000     
  -5.5449999999999999          0.0000000000000000     
  -5.5380000000000003          0.0000000000000000     
  -5.5309999999999997          0.0000000000000000     
  -5.5240000000000000          0.0000000000000000     
  -5.5170000000000003          0.0000000000000000     
  -5.5099999999999998          0.0000000000000000     
  -5.5030000000000001          0.0000000000000000     
  -5.4960000000000004          0.0000000000000000     
  -5.4889999999999999          0.0000000000000000     
  -5.4820000000000002          0.0000000000000000     
  -5.4749999999999996          0.0000000000000000     
  -5.4680000000000000          0.0000000000000000     
  -5.4610000000000003          0.0000000000000000     
  -5.4539999999999997          0.0000000000000000     
  -5.4470000000000001          0.0000000000000000     
  -5.4399999999999995          0.0000000000000000     
  -5.4329999999999998          0.0000000000000000     
  -5.4260000000000002          0.0000000000000000     
  -5.4190000000000005          0.0000000000000000     
  -5.4119999999999999          0.0000000000000000     
  -5.4050000000000002          0.0000000000000000     
  -5.3979999999999997          0.0000000000000000     
  -5.3910000000000000          0.0000000000000000     
  -5.3840000000000003          0.0000000000000000     
  -5.3769999999999998          0.0000000000000000     
  -5.3700000000000001          0.0000000000000000     
  -5.3629999999999995          0.0000000000000000     
  -5.3559999999999999          0.0000000000000000     
  -5.3490000000000002          0.0000000000000000     
  -5.3419999999999996          0.0000000000000000     
  -5.3350000000000000          0.0000000000000000     
  -5.3280000000000003          0.0000000000000000     
  -5.3209999999999997          0.0000000000000000     
  -5.3140000000000001          0.0000000000000000     
  -5.3070000000000004          0.0000000000000000     
  -5.2999999999999998          0.0000000000000000     
  -5.2930000000000001          0.0000000000000000     
  -5.2859999999999996          0.0000000000000000     
  -5.2789999999999999          0.0000000000000000     
  -5.2720000000000002          0.0000000000000000     
  -5.2649999999999997          0.0000000000000000     
  -5.2580000000000000          0.0000000000000000     
  -5.2510000000000003          0.0000000000000000     
  -5.2439999999999998          0.0000000000000000     
  -5.2370000000000001          0.0000000000000000     
  -5.2300000000000004          0.0000000000000000     
  -5.2229999999999999          0.0000000000000000     
  -5.2160000000000002          0.0000000000000000     
  -5.2089999999999996          0.0000000000000000     
  -5.2020000000000000          0.0000000000000000     
  -5.1950000000000003          0.0000000000000000     
  -5.1879999999999997          0.0000000000000000     
  -5.1810000000000000          0.0000000000000000     
  -5.1739999999999995          0.0000000000000000     
  -5.1669999999999998          0.0000000000000000     
  -5.1600000000000001          0.0000000000000000     
  -5.1530000000000005          0.0000000000000000     
  -5.1459999999999999          0.0000000000000000     
  -5.1390000000000002          0.0000000000000000     
  -5.1319999999999997          0.0000000000000000     
  -5.1250000000000000          0.0000000000000000     
  -5.1180000000000003          0.0000000000000000     
  -5.1109999999999998          0.0000000000000000     
  -5.1040000000000001          0.0000000000000000     
  -5.0969999999999995          0.0000000000000000     
  -5.0899999999999999          0.0000000000000000     
  -5.0830000000000002          0.0000000000000000     
  -5.0759999999999996          0.0000000000000000     
  -5.0690000000000000          0.0000000000000000     
  -5.0620000000000003          0.0000000000000000     
  -5.0549999999999997          0.0000000000000000     
  -5.0480000000000000          0.0000000000000000     
  -5.0410000000000004          0.0000000000000000     
  -5.0339999999999998          0.0000000000000000     
  -5.0270000000000001          0.0000000000000000     
  -5.0199999999999996          0.0000000000000000     
  -5.0129999999999999          0.0000000000000000     
  -5.0060000000000002          0.0000000000000000     
  -4.9989999999999997          0.0000000000000000     
  -4.9920000000000000          0.0000000000000000     
  -4.9849999999999994          0.0000000000000000     
  -4.9779999999999998          0.0000000000000000     
  -4.9710000000000001          0.0000000000000000     
  -4.9640000000000004          0.0000000000000000     
  -4.9569999999999999          0.0000000000000000     
  -4.9500000000000002          0.0000000000000000     
  -4.9429999999999996          0.0000000000000000     
  -4.9359999999999999          0.0000000000000000     
  -4.9290000000000003          0.0000000000000000     
  -4.9219999999999997          0.0000000000000000     
  -4.9150000000000000          0.0000000000000000     
  -4.9079999999999995          0.0000000000000000     
  -4.9009999999999998          0.0000000000000000     
  -4.8940000000000001          0.0000000000000000     
  -4.8870000000000005          0.0000000000000000     
  -4.8799999999999999          0.0000000000000000     
  -4.8730000000000002          0.0000000000000000     
  -4.8659999999999997          0.0000000000000000     
  -4.8590000000000000          0.0000000000000000     
  -4.8520000000000003          0.0000000000000000     
  -4.8449999999999998          0.0000000000000000     
  -4.8380000000000001          0.0000000000000000     
  -4.8309999999999995          0.0000000000000000     
  -4.8239999999999998          0.0000000000000000     
  -4.8170000000000002          0.0000000000000000     
  -4.8100000000000005          0.0000000000000000     
  -4.8029999999999999          0.0000000000000000     
  -4.7960000000000003          0.0000000000000000     
  -4.7889999999999997          0.0000000000000000     
  -4.7820000000000000          0.0000000000000000     
  -4.7750000000000004          0.0000000000000000     
  -4.7679999999999998          0.0000000000000000     
  -4.7610000000000001          0.0000000000000000     
  -4.7539999999999996          0.0000000000000000     
  -4.7469999999999999          0.0000000000000000     
  -4.7400000000000002          0.0000000000000000     
  -4.7329999999999997          0.0000000000000000     
  -4.7260000000000000          0.0000000000000000     
  -4.7190000000000003          0.0000000000000000     
  -4.7119999999999997          0.0000000000000000     
  -4.7050000000000001          0.0000000000000000     
  -4.6980000000000004          0.0000000000000000     
  -4.6909999999999998          0.0000000000000000     
  -4.6840000000000002          0.0000000000000000     
  -4.6769999999999996          0.0000000000000000     
  -4.6699999999999999          0.0000000000000000     
  -4.6630000000000003          0.0000000000000000     
  -4.6559999999999997          0.0000000000000000     
  -4.6490000000000000          0.0000000000000000     
  -4.6419999999999995          0.0000000000000000     
  -4.6349999999999998          0.0000000000000000     
  -4.6280000000000001          0.0000000000000000     
  -4.6210000000000004          0.0000000000000000     
  -4.6139999999999999          0.0000000000000000     
  -4.6070000000000002          0.0000000000000000     
  -4.5999999999999996          0.0000000000000000     
  -4.5930000000000000          0.0000000000000000     
  -4.5860000000000003          0.0000000000000000     
  -4.5789999999999997          0.0000000000000000     
  -4.5720000000000001          0.0000000000000000     
  -4.5649999999999995          0.0000000000000000     
  -4.5579999999999998          0.0000000000000000     
  -4.5510000000000002          0.0000000000000000     
  -4.5440000000000005          0.0000000000000000     
  -4.5369999999999999          0.0000000000000000     
  -4.5300000000000002          0.0000000000000000     
  -4.5229999999999997          0.0000000000000000     
  -4.5160000000000000          0.0000000000000000     
  -4.5090000000000003          0.0000000000000000     
  -4.5019999999999998          0.0000000000000000     
  -4.4950000000000001          0.0000000000000000     
  -4.4879999999999995          0.0000000000000000     
  -4.4809999999999999          0.0000000000000000     
  -4.4740000000000002          0.0000000000000000     
  -4.4669999999999996          0.0000000000000000     
  -4.4600000000000000          0.0000000000000000     
  -4.4530000000000003          0.0000000000000000     
  -4.4459999999999997          0.0000000000000000     
  -4.4390000000000001          0.0000000000000000     
  -4.4320000000000004          0.0000000000000000     
  -4.4249999999999998          0.0000000000000000     
  -4.4180000000000001          0.0000000000000000     
  -4.4109999999999996          0.0000000000000000     
  -4.4039999999999999          0.0000000000000000     
  -4.3970000000000002          0.0000000000000000     
  -4.3899999999999997          0.0000000000000000     
  -4.3830000000000000          0.0000000000000000     
  -4.3759999999999994          0.0000000000000000     
  -4.3689999999999998          0.0000000000000000     
  -4.3620000000000001          0.0000000000000000     
  -4.3550000000000004          0.0000000000000000     
  -4.3479999999999999          0.0000000000000000     
  -4.3410000000000002          0.0000000000000000     
  -4.3339999999999996          0.0000000000000000     
  -4.3270000000000000          0.0000000000000000     
  -4.3200000000000003          0.0000000000000000     
  -4.3129999999999997          0.0000000000000000     
  -4.3060000000000000          0.0000000000000000     
  -4.2989999999999995          0.0000000000000000     
  -4.2919999999999998          0.0000000000000000     
  -4.2850000000000001          0.0000000000000000     
  -4.2780000000000005          0.0000000000000000     
  -4.2709999999999999          0.0000000000000000     
  -4.2640000000000002          0.0000000000000000     
  -4.2569999999999997          0.0000000000000000     
  -4.2500000000000000          0.0000000000000000     
  -4.2430000000000003          0.0000000000000000     
  -4.2359999999999998          0.0000000000000000     
  -4.2290000000000001          0.0000000000000000     
  -4.2219999999999995          0.0000000000000000     
  -4.2149999999999999          0.0000000000000000     
  -4.2080000000000002          0.0000000000000000     
  -4.2010000000000005          0.0000000000000000     
  -4.1940000000000000          0.0000000000000000     
  -4.1870000000000003          0.0000000000000000     
  -4.1799999999999997          0.0000000000000000     
  -4.1730000000000000          0.0000000000000000     
  -4.1660000000000004          0.0000000000000000     
  -4.1589999999999998          0.0000000000000000     
  -4.1520000000000001          0.0000000000000000     
  -4.1449999999999996          0.0000000000000000     
  -4.1379999999999999          0.0000000000000000     
  -4.1310000000000002          0.0000000000000000     
  -4.1239999999999997          0.0000000000000000     
  -4.1170000000000000          0.0000000000000000     
  -4.1099999999999994          0.0000000000000000     
  -4.1029999999999998          0.0000000000000000     
  -4.0960000000000001          0.0000000000000000     
  -4.0890000000000004          0.0000000000000000     
  -4.0819999999999999          0.0000000000000000     
  -4.0750000000000002          0.0000000000000000     
  -4.0679999999999996          0.0000000000000000     
  -4.0609999999999999          0.0000000000000000     
  -4.0540000000000003          0.0000000000000000     
  -4.0469999999999997          0.0000000000000000     
  -4.0400000000000000          0.0000000000000000     
  -4.0329999999999995          0.0000000000000000     
  -4.0259999999999998          0.0000000000000000     
  -4.0190000000000001          0.0000000000000000     
  -4.0120000000000005          0.0000000000000000     
  -4.0049999999999999          0.0000000000000000     
  -3.9979999999999998          0.0000000000000000     
  -3.9910000000000001          0.0000000000000000     
  -3.9840000000000000          0.0000000000000000     
  -3.9769999999999999          0.0000000000000000     
  -3.9699999999999998          0.0000000000000000     
  -3.9630000000000001          0.0000000000000000     
  -3.9560000000000000          0.0000000000000000     
  -3.9489999999999998          0.0000000000000000     
  -3.9420000000000002          0.0000000000000000     
  -3.9350000000000001          0.0000000000000000     
  -3.9279999999999999          0.0000000000000000     
  -3.9209999999999998          0.0000000000000000     
  -3.9140000000000001          0.0000000000000000     
  -3.9070000000000000          0.0000000000000000     
  -3.8999999999999999          0.0000000000000000     
  -3.8929999999999998          0.0000000000000000     
  -3.8860000000000001          0.0000000000000000     
  -3.8790000000000000          0.0000000000000000     
  -3.8719999999999999          0.0000000000000000     
  -3.8649999999999998          0.0000000000000000     
  -3.8580000000000001          0.0000000000000000     
  -3.8510000000000000          0.0000000000000000     
  -3.8439999999999999          0.0000000000000000     
  -3.8369999999999997          0.0000000000000000     
  -3.8300000000000001          0.0000000000000000     
  -3.8230000000000000          0.0000000000000000     
  -3.8159999999999998          0.0000000000000000     
  -3.8090000000000002          0.0000000000000000     
  -3.8020000000000000          0.0000000000000000     
  -3.7949999999999999          0.0000000000000000     
  -3.7879999999999998          0.0000000000000000     
  -3.7810000000000001          0.0000000000000000     
  -3.7740000000000000          0.0000000000000000     
  -3.7669999999999999          0.0000000000000000     
  -3.7599999999999998          0.0000000000000000     
  -3.7530000000000001          0.0000000000000000     
  -3.7460000000000000          0.0000000000000000     
  -3.7389999999999999          0.0000000000000000     
  -3.7319999999999998          0.0000000000000000     
  -3.7250000000000001          0.0000000000000000     
  -3.7180000000000000          0.0000000000000000     
  -3.7109999999999999          0.0000000000000000     
  -3.7039999999999997          0.0000000000000000     
  -3.6970000000000001          0.0000000000000000     
  -3.6899999999999999          0.0000000000000000     
  -3.6829999999999998          0.0000000000000000     
  -3.6760000000000002          0.0000000000000000     
  -3.6690000000000000          0.0000000000000000     
  -3.6619999999999999          0.0000000000000000     
  -3.6549999999999998          0.0000000000000000     
  -3.6480000000000001          0.0000000000000000     
  -3.6410000000000000          0.0000000000000000     
  -3.6339999999999999          0.0000000000000000     
  -3.6269999999999998          0.0000000000000000     
  -3.6200000000000001          0.0000000000000000     
  -3.6130000000000000          0.0000000000000000     
  -3.6059999999999999          0.0000000000000000     
  -3.5989999999999998          0.0000000000000000     
  -3.5920000000000001          0.0000000000000000     
  -3.5850000000000000          0.0000000000000000     
  -3.5779999999999998          0.0000000000000000     
  -3.5709999999999997          0.0000000000000000     
  -3.5640000000000001          0.0000000000000000     
  -3.5569999999999999          0.0000000000000000     
  -3.5499999999999998          0.0000000000000000     
  -3.5430000000000001          0.0000000000000000     
  -3.5360000000000000          0.0000000000000000     
  -3.5289999999999999          0.0000000000000000     
  -3.5219999999999998          0.0000000000000000     
  -3.5150000000000001          0.0000000000000000     
  -3.5080000000000000          0.0000000000000000     
  -3.5009999999999999          0.0000000000000000     
  -3.4939999999999998          0.0000000000000000     
  -3.4870000000000001          0.0000000000000000     
  -3.4800000000000000          0.0000000000000000     
  -3.4729999999999999          0.0000000000000000     
  -3.4659999999999997          0.0000000000000000     
  -3.4590000000000001          0.0000000000000000     
  -3.4520000000000000          0.0000000000000000     
  -3.4449999999999998          0.0000000000000000     
  -3.4380000000000002          0.0000000000000000     
  -3.4310000000000000          0.0000000000000000     
  -3.4239999999999999          0.0000000000000000     
  -3.4169999999999998          0.0000000000000000     
  -3.4100000000000001          0.0000000000000000     
  -3.4030000000000000          0.0000000000000000     
  -3.3959999999999999          0.0000000000000000     
  -3.3889999999999998          0.0000000000000000     
  -3.3820000000000001          0.0000000000000000     
  -3.3750000000000000          0.0000000000000000     
  -3.3679999999999999          0.0000000000000000     
  -3.3609999999999998          0.0000000000000000     
  -3.3540000000000001          0.0000000000000000     
  -3.3470000000000000          0.0000000000000000     
  -3.3399999999999999          0.0000000000000000     
  -3.3329999999999997          0.0000000000000000     
  -3.3260000000000001          0.0000000000000000     
  -3.3190000000000000          0.0000000000000000     
  -3.3119999999999998          0.0000000000000000     
  -3.3050000000000002          0.0000000000000000     
  -3.2980000000000000          0.0000000000000000     
  -3.2909999999999999          0.0000000000000000     
  -3.2839999999999998          0.0000000000000000     
  -3.2770000000000001          0.0000000000000000     
  -3.2700000000000000          0.0000000000000000     
  -3.2629999999999999          0.0000000000000000     
  -3.2559999999999998          0.0000000000000000     
  -3.2490000000000001          0.0000000000000000     
  -3.2420000000000000          0.0000000000000000     
  -3.2349999999999999          0.0000000000000000     
  -3.2279999999999998          0.0000000000000000     
  -3.2210000000000001          0.0000000000000000     
  -3.2140000000000000          0.0000000000000000     
  -3.2069999999999999          0.0000000000000000     
  -3.1999999999999997          0.0000000000000000     
  -3.1930000000000001          0.0000000000000000     
  -3.1859999999999999          0.0000000000000000     
  -3.1789999999999998          0.0000000000000000     
  -3.1720000000000002          0.0000000000000000     
  -3.1650000000000000          0.0000000000000000     
  -3.1579999999999999          0.0000000000000000     
  -3.1509999999999998          0.0000000000000000     
  -3.1440000000000001          0.0000000000000000     
  -3.1370000000000000          0.0000000000000000     
  -3.1299999999999999          0.0000000000000000     
  -3.1229999999999998          0.0000000000000000     
  -3.1160000000000001          0.0000000000000000     
  -3.1090000000000000          0.0000000000000000     
  -3.1019999999999999          0.0000000000000000     
  -3.0949999999999998          0.0000000000000000     
  -3.0880000000000001          0.0000000000000000     
  -3.0810000000000000          0.0000000000000000     
  -3.0739999999999998          0.0000000000000000     
  -3.0669999999999997          0.0000000000000000     
  -3.0600000000000001          0.0000000000000000     
  -3.0529999999999999          0.0000000000000000     
  -3.0459999999999998          0.0000000000000000     
  -3.0390000000000001          0.0000000000000000     
  -3.0320000000000000          0.0000000000000000     
  -3.0249999999999999          0.0000000000000000     
  -3.0179999999999998          0.0000000000000000     
  -3.0110000000000001          0.0000000000000000     
  -3.0040000000000000          0.0000000000000000     
  -2.9969999999999999          0.0000000000000000     
  -2.9899999999999998          0.0000000000000000     
  -2.9830000000000001          0.0000000000000000     
  -2.9760000000000000          0.0000000000000000     
  -2.9689999999999999          0.0000000000000000     
  -2.9619999999999997          0.0000000000000000     
  -2.9550000000000001          0.0000000000000000     
  -2.9480000000000000          0.0000000000000000     
  -2.9409999999999998          0.0000000000000000     
  -2.9339999999999997          0.0000000000000000     
  -2.9270000000000000          0.0000000000000000     
  -2.9199999999999999          0.0000000000000000     
  -2.9129999999999998          0.0000000000000000     
  -2.9060000000000001          0.0000000000000000     
  -2.8990000000000000          0.0000000000000000     
  -2.8919999999999999          0.0000000000000000     
  -2.8849999999999998          0.0000000000000000     
  -2.8780000000000001          0.0000000000000000     
  -2.8710000000000000          0.0000000000000000     
  -2.8639999999999999          0.0000000000000000     
  -2.8569999999999998          0.0000000000000000     
  -2.8500000000000001          0.0000000000000000     
  -2.8430000000000000          0.0000000000000000     
  -2.8359999999999999          0.0000000000000000     
  -2.8289999999999997          0.0000000000000000     
  -2.8220000000000001         -4.7828620905021518E-035
  -2.8149999999999999          0.0000000000000000     
  -2.8079999999999998          5.8911185088405150E-035
  -2.8009999999999997          2.8937895189373343E-034
  -2.7940000000000000         -9.2416430287531134E-035
  -2.7869999999999999         -6.9668464500566072E-034
  -2.7799999999999998         -2.1324757812637315E-034
  -2.7730000000000001          1.2655914010380079E-033
  -2.7660000000000000          1.9740627646335622E-033
  -2.7589999999999999         -1.2597266025823663E-033
  -2.7519999999999998         -5.5343780138850287E-033
  -2.7450000000000001         -6.6189983861940992E-034
  -2.7380000000000000          9.8490932113995917E-033
  -2.7309999999999999          8.4901277023009615E-033
  -2.7239999999999998         -1.4925372260561544E-032
  -2.7170000000000001         -2.7753565620972184E-032
  -2.7100000000000000          1.3755130900119493E-032
  -2.7029999999999998          7.2322877681516650E-032
  -2.6959999999999997         -2.7564769473286616E-033
  -2.6890000000000001         -1.3010224538107225E-031
  -2.6819999999999999         -5.6493041863866037E-032
  -2.6749999999999998          1.7362391279512574E-031
  -2.6680000000000001          1.9670472086363434E-031
  -2.6610000000000000         -1.3587677909488218E-031
  -2.6539999999999999         -3.8766910314412417E-031
  -2.6469999999999998         -7.5096873902776379E-032
  -2.6400000000000001          5.0737162069909306E-031
  -2.6330000000000000          4.9017940456125467E-031
  -2.6259999999999999         -3.4039904285405559E-031
  -2.6189999999999998         -9.7662543906429776E-031
  -2.6120000000000001         -3.1355808696602367E-031
  -2.6050000000000000          1.1350187889392938E-030
  -2.5979999999999999          1.4300339227188363E-030
  -2.5909999999999997         -4.1402805932854492E-031
  -2.5840000000000001         -2.4574360157612536E-030
  -2.5770000000000000         -1.5544192806290629E-030
  -2.5699999999999998          2.2620423355020348E-030
  -2.5629999999999997          4.3122067983643998E-030
  -2.5560000000000000          4.5477699417776581E-031
  -2.5489999999999999         -6.0238815503368628E-030
  -2.5419999999999998         -6.0028855285193116E-030
  -2.5350000000000001          3.6836163664373252E-030
  -2.5280000000000000          1.2182285545707251E-029
  -2.5209999999999999          5.2223012320026655E-030
  -2.5139999999999998         -1.3512867662250475E-029
  -2.5070000000000001         -1.9569371155653165E-029
  -2.5000000000000000          2.8890991704792527E-030
  -2.4929999999999999          3.1417990090811713E-029
  -2.4859999999999998          2.3140063328140329E-029
  -2.4790000000000001         -2.6043171005857653E-029
  -2.4720000000000000         -5.6639445030303323E-029
  -2.4649999999999999         -1.1136668086244040E-029
  -2.4579999999999997          7.3131748886012388E-029
  -2.4510000000000001          7.9845035115535890E-029
  -2.4440000000000000         -3.7144303427678595E-029
  -2.4369999999999998         -1.4841703652465213E-028
  -2.4299999999999997         -7.5028488954680004E-029
  -2.4230000000000000          1.4997474070073467E-028
  -2.4159999999999999          2.3886943173545453E-028
  -2.4089999999999998         -9.2562773572449480E-030
  -2.4020000000000001         -3.5267359511426849E-028
  -2.3950000000000000         -2.9287912776025645E-028
  -2.3879999999999999          2.5299952232906188E-028
  -2.3809999999999998          6.4020988024517878E-028
  -2.3740000000000001          1.9282437084741741E-028
  -2.3670000000000000         -7.4931304122273794E-028
  -2.3599999999999999         -9.2575282788364829E-028
  -2.3529999999999998          2.6657660621326275E-028
  -2.3460000000000001          1.5507043836996734E-027
  -2.3390000000000000          9.6534070307651680E-028
  -2.3319999999999999         -1.3666932367966421E-027
  -2.3249999999999997         -2.5546170339233944E-027
  -2.3180000000000001         -2.7786999459178215E-028
  -2.3109999999999999          3.3734924017697147E-027
  -2.3039999999999998          3.3159070964325363E-027
  -2.2969999999999997         -1.8858944830752917E-027
  -2.2900000000000000         -6.3048325032089299E-027
  -2.2829999999999999         -2.8088245717359489E-027
  -2.2759999999999998          6.4230060238525751E-027
  -2.2690000000000001          9.5025175455632223E-027
  -2.2620000000000000         -7.6721041930643686E-028
  -2.2549999999999999         -1.3955202095368402E-026
  -2.2479999999999998         -1.1011414323512624E-026
  -2.2410000000000001          9.9309036838372307E-027
  -2.2340000000000000          2.3934437376346020E-026
  -2.2269999999999999          6.9056845124448486E-027
  -2.2199999999999998         -2.7268098850563884E-026
  -2.2130000000000001         -3.3180978032256779E-026
  -2.2060000000000000          9.0556355464752967E-027
  -2.1989999999999998          5.3740415774058607E-026
  -2.1919999999999997          3.3997029986804628E-026