  -6.0000000000000000          0.0000000000000000     
  -5.9930000000000003          0.0000000000000000     
  -5.9859999999999998          0.0000000000000000     
  -5.9790000000000001          0.0000000000000000     
  -5.9720000000000004          0.0000000000000000     
  -5.9649999999999999          0.0000000000000000     
  -5.9580000000000002          0.0000000000000000     
  -5.9509999999999996          0.0000000000000000     
  -5.9440000000000000          0.0000000000000000     
  -5.9370000000000003          0.0000000000000000     
  -5.9299999999999997          0.0000000000000000     
  -5.9230000000000000          0.0000000000000000     
  -5.9160000000000004          0.0000000000000000     
  -5.9089999999999998          0.0000000000000000     
  -5.9020000000000001          0.0000000000000000     
  -5.8949999999999996          0.0000000000000000     
  -5.8879999999999999          0.0000000000000000     
  -5.8810000000000002          0.0000000000000000     
  -5.8739999999999997          0.0000000000000000     
  -5.8670000000000000          0.0000000000000000     
  -5.8600000000000003          0.0000000000000000     
  -5.8529999999999998          0.0000000000000000     
  -5.8460000000000001          0.0000000000000000     
  -5.8390000000000004          0.0000000000000000     
  -5.8319999999999999          0.0000000000000000     
  -5.8250000000000002          0.0000000000000000     
  -5.8179999999999996          0.0000000000000000     
  -5.8109999999999999          0.0000000000000000     
  -5.8040000000000003          0.0000000000000000     
  -5.7969999999999997          0.0000000000000000     
  -5.7900000000000000          0.0000000000000000     
  -5.7830000000000004          0.0000000000000000     
  -5.7759999999999998          0.0000000000000000     
  -5.7690000000000001          0.0000000000000000     
  -5.7619999999999996          0.0000000000000000     
  -5.7549999999999999          0.0000000000000000     
  -5.7480000000000002          0.0000000000000000     
  -5.7409999999999997          0.0000000000000000     
  -5.7340000000000000          0.0000000000000000     
  -5.7270000000000003          0.0000000000000000     
  -5.7199999999999998          0.0000000000000000     
  -5.7130000000000001          0.0000000000000000     
  -5.7060000000000004          0.0000000000000000     
  -5.6989999999999998          0.0000000000000000     
  -5.6920000000000002          0.0000000000000000     
  -5.6849999999999996          0.0000000000000000     
  -5.6779999999999999          0.0000000000000000     
  -5.6710000000000003          0.0000000000000000     
  -5.6639999999999997          0.0000000000000000     
  -5.6570000000000000          0.0000000000000000     
  -5.6500000000000004          0.0000000000000000     
  -5.6429999999999998          0.0000000000000000     
  -5.6360000000000001          0.0000000000000000     
  -5.6289999999999996          0.0000000000000000     
  -5.6219999999999999          0.0000000000000000     
  -5.6150000000000002          0.0000000000000000     
  -5.6079999999999997          0.0000000000000000     
  -5.6010000000000000          0.0000000000000000     
  -5.5940000000000003          0.0000000000000000     
  -5.5869999999999997          0.0000000000000000     
  -5.5800000000000001          0.0000000000000000     
  -5.5730000000000004          0.0000000000000000     
  -5.5659999999999998          0.0000000000000000     
  -5.5590000000000002          0.0000000000000000     
  -5.5519999999999996          0.0000000000000000     
  -5.5449999999999999          0.0000000000000000     
  -5.5380000000000003          0.0000000000000000     
  -5.5309999999999997          0.0000000000000000     
  -5.5240000000000000          0.0000000000000000     
  -5.5170000000000003          0.0000000000000000     
  -5.5099999999999998          0.0000000000000000     
  -5.5030000000000001          0.0000000000000000     
  -5.4960000000000004          0.0000000000000000     
  -5.4889999999999999          0.0000000000000000     
  -5.4820000000000002          0.0000000000000000     
  -5.4749999999999996          0.0000000000000000     
  -5.4680000000000000          0.0000000000000000     
  -5.4610000000000003          0.0000000000000000     
  -5.4539999999999997          0.0000000000000000     
  -5.4470000000000001          0.0000000000000000     
  -5.4399999999999995          0.0000000000000000     
  -5.4329999999999998          0.0000000000000000     
  -5.4260000000000002          0.0000000000000000     
  -5.4190000000000005          0.0000000000000000     
  -5.4119999999999999          0.0000000000000000     
  -5.4050000000000002          0.0000000000000000     
  -5.3979999999999997          0.0000000000000000     
  -5.3910000000000000          0.0000000000000000     
  -5.3840000000000003          0.0000000000000000     
  -5.3769999999999998          0.0000000000000000     
  -5.3700000000000001          0.0000000000000000     
  -5.3629999999999995          0.0000000000000000     
  -5.3559999999999999          0.0000000000000000     
  -5.3490000000000002          0.0000000000000000     
  -5.3419999999999996          0.0000000000000000     
  -5.3350000000000000          0.0000000000000000     
  -5.3280000000000003          0.0000000000000000     
  -5.3209999999999997          0.0000000000000000     
  -5.3140000000000001          0.0000000000000000     
  -5.3070000000000004          0.0000000000000000     
  -5.2999999999999998          0.0000000000000000     
  -5.2930000000000001          0.0000000000000000     
  -5.2859999999999996          0.0000000000000000     
  -5.2789999999999999          0.0000000000000000     
  -5.2720000000000002          0.0000000000000000     
  -5.2649999999999997          0.0000000000000000     
  -5.2580000000000000          0.0000000000000000     
  -5.2510000000000003          0.0000000000000000     
  -5.2439999999999998          0.0000000000000000     
  -5.2370000000000001          0.0000000000000000     
  -5.2300000000000004          0.0000000000000000     
  -5.2229999999999999          0.0000000000000000     
  -5.2160000000000002          0.0000000000000000     
  -5.2089999999999996          0.0000000000000000     
  -5.2020000000000000          0.0000000000000000     
  -5.1950000000000003          0.0000000000000000     
  -5.1879999999999997          0.0000000000000000     
  -5.1810000000000000          0.0000000000000000     
  -5.1739999999999995          0.0000000000000000     
  -5.1669999999999998          0.0000000000000000     
  -5.1600000000000001          0.0000000000000000     
  -5.1530000000000005          0.0000000000000000     
  -5.1459999999999999          0.0000000000000000     
  -5.1390000000000002          0.0000000000000000     
  -5.1319999999999997          0.0000000000000000     
  -5.1250000000000000          0.0000000000000000     
  -5.1180000000000003          0.0000000000000000     
  -5.1109999999999998          0.0000000000000000     
  -5.1040000000000001          0.0000000000000000     
  -5.0969999999999995          0.0000000000000000     
  -5.0899999999999999          0.0000000000000000     
  -5.0830000000000002          0.0000000000000000     
  -5.0759999999999996          0.0000000000000000     
  -5.0690000000000000          0.0000000000000000     
  -5.0620000000000003          0.0000000000000000     
  -5.0549999999999997          0.0000000000000000     
  -5.0480000000000000          0.0000000000000000     
  -5.0410000000000004          0.0000000000000000     
  -5.0339999999999998          0.0000000000000000     
  -5.0270000000000001          0.0000000000000000     
  -5.0199999999999996          0.0000000000000000     
  -5.0129999999999999          0.0000000000000000     
  -5.0060000000000002          0.0000000000000000     
  -4.9989999999999997          0.0000000000000000     
  -4.9920000000000000          0.0000000000000000     
  -4.9849999999999994          0.0000000000000000     
  -4.9779999999999998          0.0000000000000000     
  -4.9710000000000001          0.0000000000000000     
  -4.9640000000000004          0.0000000000000000     
  -4.9569999999999999          0.0000000000000000     
  -4.9500000000000002          0.0000000000000000     
  -4.9429999999999996          0.0000000000000000     
  -4.9359999999999999          0.0000000000000000     
  -4.9290000000000003          0.0000000000000000     
  -4.9219999999999997          0.0000000000000000     
  -4.9150000000000000          0.0000000000000000     
  -4.9079999999999995          0.0000000000000000     
  -4.9009999999999998          0.0000000000000000     
  -4.8940000000000001          0.0000000000000000     
  -4.8870000000000005          0.0000000000000000     
  -4.8799999999999999          0.0000000000000000     
  -4.8730000000000002          0.0000000000000000     
  -4.8659999999999997          0.0000000000000000     
  -4.8590000000000000          0.0000000000000000     
  -4.8520000000000003          0.0000000000000000     
  -4.8449999999999998          0.0000000000000000     
  -4.8380000000000001          0.0000000000000000     
  -4.8309999999999995          0.0000000000000000     
  -4.8239999999999998          0.0000000000000000     
  -4.8170000000000002          0.0000000000000000     
  -4.8100000000000005          0.0000000000000000     
  -4.8029999999999999          0.0000000000000000     
  -4.7960000000000003          0.0000000000000000     
  -4.7889999999999997          0.0000000000000000     
  -4.7820000000000000          0.0000000000000000     
  -4.7750000000000004          0.0000000000000000     
  -4.7679999999999998          0.0000000000000000     
  -4.7610000000000001          0.0000000000000000     
  -4.7539999999999996          0.0000000000000000     
  -4.7469999999999999          0.0000000000000000     
  -4.7400000000000002          0.0000000000000000     
  -4.7329999999999997          0.0000000000000000     
  -4.7260000000000000          0.0000000000000000     
  -4.7190000000000003          0.0000000000000000     
  -4.7119999999999997          0.0000000000000000     
  -4.7050000000000001          0.0000000000000000     
  -4.6980000000000004          0.0000000000000000     
  -4.6909999999999998          0.0000000000000000     
  -4.6840000000000002          0.0000000000000000     
  -4.6769999999999996          0.0000000000000000     
  -4.6699999999999999          0.0000000000000000     
  -4.6630000000000003          0.0000000000000000     
  -4.6559999999999997          0.0000000000000000     
  -4.6490000000000000          0.0000000000000000     
  -4.6419999999999995          0.0000000000000000     
  -4.6349999999999998          0.0000000000000000     
  -4.6280000000000001          0.0000000000000000     
  -4.6210000000000004          0.0000000000000000     
  -4.6139999999999999          0.0000000000000000     
  -4.6070000000000002          0.0000000000000000     
  -4.5999999999999996          0.0000000000000000     
  -4.5930000000000000          0.0000000000000000     
  -4.5860000000000003          0.0000000000000000     
  -4.5789999999999997          0.0000000000000000     
  -4.5720000000000001          0.0000000000000000     
  -4.5649999999999995          0.0000000000000000     
  -4.5579999999999998          0.0000000000000000     
  -4.5510000000000002          0.0000000000000000     
  -4.5440000000000005          0.0000000000000000     
  -4.5369999999999999          0.0000000000000000     
  -4.5300000000000002          0.0000000000000000     
  -4.5229999999999997          0.0000000000000000     
  -4.5160000000000000          0.0000000000000000     
  -4.5090000000000003          0.0000000000000000     
  -4.5019999999999998          0.0000000000000000     
  -4.4950000000000001          0.0000000000000000     
  -4.4879999999999995          0.0000000000000000     
  -4.4809999999999999          0.0000000000000000     
  -4.4740000000000002          0.0000000000000000     
  -4.4669999999999996          0.0000000000000000     
  -4.4600000000000000          0.0000000000000000     
  -4.4530000000000003          0.0000000000000000     
  -4.4459999999999997          0.0000000000000000     
  -4.4390000000000001          0.0000000000000000     
  -4.4320000000000004          0.0000000000000000     
  -4.4249999999999998          0.0000000000000000     
  -4.4180000000000001          0.0000000000000000     
  -4.4109999999999996          0.0000000000000000     
  -4.4039999999999999          0.0000000000000000     
  -4.3970000000000002          0.0000000000000000     
  -4.3899999999999997          0.0000000000000000     
  -4.3830000000000000          0.0000000000000000     
  -4.3759999999999994          0.0000000000000000     
  -4.3689999999999998          0.0000000000000000     
  -4.3620000000000001          0.0000000000000000     
  -4.3550000000000004          0.0000000000000000     
  -4.3479999999999999          0.0000000000000000     
  -4.3410000000000002          0.0000000000000000     
  -4.3339999999999996          0.0000000000000000     
  -4.3270000000000000          0.0000000000000000     
  -4.3200000000000003          0.0000000000000000     
  -4.3129999999999997          0.0000000000000000     
  -4.3060000000000000          0.0000000000000000     
  -4.2989999999999995          0.0000000000000000     
  -4.2919999999999998          0.0000000000000000     
  -4.2850000000000001          0.0000000000000000     
  -4.2780000000000005          0.0000000000000000     
  -4.2709999999999999          0.0000000000000000     
  -4.2640000000000002          0.0000000000000000     
  -4.2569999999999997          0.0000000000000000     
  -4.2500000000000000          0.0000000000000000     
  -4.2430000000000003          0.0000000000000000     
  -4.2359999999999998          0.0000000000000000     
  -4.2290000000000001          0.0000000000000000     
  -4.2219999999999995          0.0000000000000000     
  -4.2149999999999999          0.0000000000000000     
  -4.2080000000000002          0.0000000000000000     
  -4.2010000000000005          0.0000000000000000     
  -4.1940000000000000          0.0000000000000000     
  -4.1870000000000003          0.0000000000000000     
  -4.1799999999999997          0.0000000000000000     
  -4.1730000000000000          0.0000000000000000     
  -4.1660000000000004          0.0000000000000000     
  -4.1589999999999998          0.0000000000000000     
  -4.1520000000000001          0.0000000000000000     
  -4.1449999999999996          0.0000000000000000     
  -4.1379999999999999          0.0000000000000000     
  -4.1310000000000002          0.0000000000000000     
  -4.1239999999999997          0.0000000000000000     
  -4.1170000000000000          0.0000000000000000     
  -4.1099999999999994          0.0000000000000000     
  -4.1029999999999998          0.0000000000000000     
  -4.0960000000000001          0.0000000000000000     
  -4.0890000000000004          0.0000000000000000     
  -4.0819999999999999          0.0000000000000000     
  -4.0750000000000002          0.0000000000000000     
  -4.0679999999999996          0.0000000000000000     
  -4.0609999999999999          0.0000000000000000     
  -4.0540000000000003          0.0000000000000000     
  -4.0469999999999997          0.0000000000000000     
  -4.0400000000000000          0.0000000000000000     
  -4.0329999999999995          0.0000000000000000     
  -4.0259999999999998          0.0000000000000000     
  -4.0190000000000001          0.0000000000000000     
  -4.0120000000000005          0.0000000000000000     
  -4.0049999999999999          0.0000000000000000     
  -3.9979999999999998          0.0000000000000000     
  -3.9910000000000001          0.0000000000000000     
  -3.9840000000000000          0.0000000000000000     
  -3.9769999999999999          0.0000000000000000     
  -3.9699999999999998          0.0000000000000000     
  -3.9630000000000001          0.0000000000000000     
  -3.9560000000000000          0.0000000000000000     
  -3.9489999999999998          0.0000000000000000     
  -3.9420000000000002          0.0000000000000000     
  -3.9350000000000001          0.0000000000000000     
  -3.9279999999999999          0.0000000000000000     
  -3.9209999999999998          0.0000000000000000     
  -3.9140000000000001          0.0000000000000000     
  -3.9070000000000000          0.0000000000000000     
  -3.8999999999999999          0.0000000000000000     
  -3.8929999999999998          0.0000000000000000     
  -3.8860000000000001          0.0000000000000000     
  -3.8790000000000000          0.0000000000000000     
  -3.8719999999999999          0.0000000000000000     
  -3.8649999999999998          0.0000000000000000     
  -3.8580000000000001          0.0000000000000000     
  -3.8510000000000000          0.0000000000000000     
  -3.8439999999999999          0.0000000000000000     
  -3.8369999999999997          0.0000000000000000     
  -3.8300000000000001          0.0000000000000000     
  -3.8230000000000000          0.0000000000000000     
  -3.8159999999999998          0.0000000000000000     
  -3.8090000000000002          0.0000000000000000     
  -3.8020000000000000          0.0000000000000000     
  -3.7949999999999999          0.0000000000000000     
  -3.7879999999999998          0.0000000000000000     
  -3.7810000000000001          0.0000000000000000     
  -3.7740000000000000          0.0000000000000000     
  -3.7669999999999999          0.0000000000000000     
  -3.7599999999999998          0.0000000000000000     
  -3.7530000000000001          0.0000000000000000     
  -3.7460000000000000          0.0000000000000000     
  -3.7389999999999999          0.0000000000000000     
  -3.7319999999999998          0.0000000000000000     
  -3.7250000000000001          0.0000000000000000     
  -3.7180000000000000          0.0000000000000000     
  -3.7109999999999999          0.0000000000000000     
  -3.7039999999999997          0.0000000000000000     
  -3.6970000000000001          0.0000000000000000     
  -3.6899999999999999          0.0000000000000000     
  -3.6829999999999998          0.0000000000000000     
  -3.6760000000000002          0.0000000000000000     
  -3.6690000000000000          0.0000000000000000     
  -3.6619999999999999          0.0000000000000000     
  -3.6549999999999998          0.0000000000000000     
  -3.6480000000000001          0.0000000000000000     
  -3.6410000000000000          0.0000000000000000     
  -3.6339999999999999          0.0000000000000000     
  -3.6269999999999998          0.0000000000000000     
  -3.6200000000000001          0.0000000000000000     
  -3.6130000000000000          0.0000000000000000     
  -3.6059999999999999          0.0000000000000000     
  -3.5989999999999998          0.0000000000000000     
  -3.5920000000000001          0.0000000000000000     
  -3.5850000000000000          0.0000000000000000     
  -3.5779999999999998          0.0000000000000000     
  -3.5709999999999997          0.0000000000000000     
  -3.5640000000000001          0.0000000000000000     
  -3.5569999999999999          0.0000000000000000     
  -3.5499999999999998          0.0000000000000000     
  -3.5430000000000001          0.0000000000000000     
  -3.5360000000000000          0.0000000000000000     
  -3.5289999999999999          0.0000000000000000     
  -3.5219999999999998          0.0000000000000000     
  -3.5150000000000001          0.0000000000000000     
  -3.5080000000000000          0.0000000000000000     
  -3.5009999999999999          0.0000000000000000     
  -3.4939999999999998          0.0000000000000000     
  -3.4870000000000001          0.0000000000000000     
  -3.4800000000000000          0.0000000000000000     
  -3.4729999999999999          0.0000000000000000     
  -3.4659999999999997          0.0000000000000000     
  -3.4590000000000001          0.0000000000000000     
  -3.4520000000000000          0.0000000000000000     
  -3.4449999999999998          0.0000000000000000     
  -3.4380000000000002          0.0000000000000000     
  -3.4310000000000000          0.0000000000000000     
  -3.4239999999999999          0.0000000000000000     
  -3.4169999999999998          0.0000000000000000     
  -3.4100000000000001          0.0000000000000000     
  -3.4030000000000000          0.0000000000000000     
  -3.3959999999999999          0.0000000000000000     
  -3.3889999999999998          0.0000000000000000     
  -3.3820000000000001          0.0000000000000000     
  -3.3750000000000000          0.0000000000000000     
  -3.3679999999999999          0.0000000000000000     
  -3.3609999999999998          0.0000000000000000     
  -3.3540000000000001          0.0000000000000000     
  -3.3470000000000000          0.0000000000000000     
  -3.3399999999999999          0.0000000000000000     
  -3.3329999999999997          0.0000000000000000     
  -3.3260000000000001          0.0000000000000000     
  -3.3190000000000000          0.0000000000000000     
  -3.3119999999999998          0.0000000000000000     
  -3.3050000000000002          0.0000000000000000     
  -3.2980000000000000          0.0000000000000000     
  -3.2909999999999999          0.0000000000000000     
  -3.2839999999999998          0.0000000000000000     
  -3.2770000000000001          0.0000000000000000     
  -3.2700000000000000          0.0000000000000000     
  -3.2629999999999999          0.0000000000000000     
  -3.2559999999999998          0.0000000000000000     
  -3.2490000000000001          0.0000000000000000     
  -3.2420000000000000          0.0000000000000000     
  -3.2349999999999999          0.0000000000000000     
  -3.2279999999999998          0.0000000000000000     
  -3.2210000000000001          0.0000000000000000     
  -3.2140000000000000          0.0000000000000000     
  -3.2069999999999999          0.0000000000000000     
  -3.1999999999999997          0.0000000000000000     
  -3.1930000000000001          0.0000000000000000     
  -3.1859999999999999          0.0000000000000000     
  -3.1789999999999998          0.0000000000000000     
  -3.1720000000000002          0.0000000000000000     
  -3.1650000000000000          0.0000000000000000     
  -3.1579999999999999          0.0000000000000000     
  -3.1509999999999998          0.0000000000000000     
  -3.1440000000000001          0.0000000000000000     
  -3.1370000000000000          0.0000000000000000     
  -3.1299999999999999          0.0000000000000000     
  -3.1229999999999998          0.0000000000000000     
  -3.1160000000000001          0.0000000000000000     
  -3.1090000000000000          0.0000000000000000     
  -3.1019999999999999          0.0000000000000000     
  -3.0949999999999998          0.0000000000000000     
  -3.0880000000000001          0.0000000000000000     
  -3.0810000000000000          0.0000000000000000     
  -3.0739999999999998          0.0000000000000000     
  -3.0669999999999997          0.0000000000000000     
  -3.0600000000000001          0.0000000000000000     
  -3.0529999999999999          0.0000000000000000     
  -3.0459999999999998          0.0000000000000000     
  -3.0390000000000001          0.0000000000000000     
  -3.0320000000000000          0.0000000000000000     
  -3.0249999999999999          0.0000000000000000     
  -3.0179999999999998          0.0000000000000000     
  -3.0110000000000001          0.0000000000000000     
  -3.0040000000000000          0.0000000000000000     
  -2.9969999999999999          0.0000000000000000     
  -2.9899999999999998          0.0000000000000000     
  -2.9830000000000001          0.0000000000000000     
  -2.9760000000000000          0.0000000000000000     
  -2.9689999999999999          0.0000000000000000     
  -2.9619999999999997          0.0000000000000000     
  -2.9550000000000001          0.0000000000000000     
  -2.9480000000000000          0.0000000000000000     
  -2.9409999999999998          0.0000000000000000     
  -2.9339999999999997          0.0000000000000000     
  -2.9270000000000000          0.0000000000000000     
  -2.9199999999999999          0.0000000000000000     
  -2.9129999999999998          0.0000000000000000     
  -2.9060000000000001          0.0000000000000000     
  -2.8990000000000000          0.0000000000000000     
  -2.8919999999999999          0.0000000000000000     
  -2.8849999999999998          0.0000000000000000     
  -2.8780000000000001          0.0000000000000000     
  -2.8710000000000000          0.0000000000000000     
  -2.8639999999999999          0.0000000000000000     
  -2.8569999999999998          0.0000000000000000     
  -2.8500000000000001          0.0000000000000000     
  -2.8430000000000000          0.0000000000000000     
  -2.8359999999999999          0.0000000000000000     
  -2.8289999999999997          0.0000000000000000     
  -2.8220000000000001          0.0000000000000000     
  -2.8149999999999999          0.0000000000000000     
  -2.8079999999999998          0.0000000000000000     
  -2.8009999999999997          0.0000000000000000     
  -2.7940000000000000          0.0000000000000000     
  -2.7869999999999999          0.0000000000000000     
  -2.7799999999999998         -1.3502087419923512E-034
  -2.7730000000000001          0.0000000000000000     
  -2.7660000000000000          3.1888193155395353E-034
  -2.7589999999999999          2.0553954942734448E-034
  -2.7519999999999998         -3.2244448299753644E-034
  -2.7450000000000001         -9.0598251619552291E-034
  -2.7380000000000000         -7.7551368647266199E-035
  -2.7309999999999999          2.7639631933044687E-033
  -2.7239999999999998          3.0446655504800692E-033
  -2.7170000000000001         -4.5924341867619750E-033
  -2.7100000000000000         -1.3462253543876243E-032
  -2.7029999999999998          4.8426385266764835E-033
  -2.6959999999999997          2.9834957631991544E-032
  -2.6890000000000001          1.3354911807862968E-032
  -2.6819999999999999         -7.0669621284217906E-032
  -2.6749999999999998         -3.5827589628917164E-032
  -2.6680000000000001          9.3308173113116636E-032
  -2.6610000000000000          1.1293034178561608E-031
  -2.6539999999999999         -8.7450408521796734E-032
  -2.6469999999999998         -2.3468662429562413E-031
  -2.6400000000000001         -1.9159188467484578E-032
  -2.6330000000000000          3.4602564060381453E-031
  -2.6259999999999999          2.7056461618356867E-031
  -2.6189999999999998         -2.9885295826576807E-031
  -2.6120000000000001         -6.1677229384255155E-031
  -2.6050000000000000         -5.4391334371728590E-032
  -2.5979999999999999          8.3258243018459210E-031
  -2.5909999999999997          7.5825803827193034E-031
  -2.5840000000000001         -5.5428071018391113E-031
  -2.5770000000000000         -1.5664266262842943E-030
  -2.5699999999999998         -5.5358618110167129E-031
  -2.5629999999999997          1.7914338304271685E-030
  -2.5560000000000000          2.4024909647755701E-030
  -2.5489999999999999         -5.0203849686896040E-031
  -2.5419999999999998         -3.9986759358475412E-030
  -2.5350000000000001         -2.8205825199958116E-030
  -2.5280000000000000          3.4236541920806592E-030
  -2.5209999999999999          7.2344789836611458E-030
  -2.5139999999999998          1.3302369914018218E-030
  -2.5070000000000001         -9.5666484909467963E-030
  -2.5000000000000000         -1.0421987833486471E-029
  -2.4929999999999999          4.9892494147205039E-030
  -2.4859999999999998          1.9802848031692584E-029
  -2.4790000000000001          1.0023386538840152E-029
  -2.4720000000000000         -2.0386674134107577E-029
  -2.4649999999999999         -3.2592036984910172E-029
  -2.4579999999999997          1.3978496397097066E-030
  -2.4510000000000001          4.8951560008015889E-029
  -2.4440000000000000          4.0728955582997028E-029
  -2.4369999999999998         -3.5845778264596421E-029
  -2.4299999999999997         -9.0609545075733324E-029
  -2.4230000000000000         -2.6972627806284471E-029
  -2.4159999999999999          1.0796937805636054E-028
  -2.4089999999999998          1.3327840864154209E-028
  -2.4020000000000001         -3.9943937509868177E-029
  -2.3950000000000000         -2.2735198548202998E-028
  -2.3879999999999999         -1.4063791658978042E-028
  -2.3809999999999998          2.0480119954082692E-028
  -2.3740000000000001          3.8076593150682985E-028
  -2.3670000000000000          3.7788740651929331E-029
  -2.3599999999999999         -5.1301597781750422E-028
  -2.3529999999999998         -5.0107121585766876E-028
  -2.3460000000000001          2.9695911405094359E-028
  -2.3390000000000000          9.7395548401425813E-028
  -2.3319999999999999          4.2474290474645966E-028
  -2.3249999999999997         -1.0166518101373676E-027
  -2.3180000000000001         -1.4886535208969416E-027
  -2.3109999999999999          1.4759069220788848E-028
  -2.3039999999999998          2.2384529075788859E-027
  -2.2969999999999997          1.7383391677930692E-027
  -2.2900000000000000         -1.6519286615712416E-027
  -2.2829999999999999         -3.8900275832263491E-027
  -2.2759999999999998         -1.0538614507384096E-027
  -2.2690000000000001          4.5589916456894779E-027
  -2.2620000000000000          5.4437064694286313E-027
  -2.2549999999999999         -1.6681873621617586E-027
  -2.2479999999999998         -9.0796318632103839E-027
  -2.2410000000000001         -5.5530700161346716E-027
  -2.2340000000000000          7.8680901945826164E-027
  -2.2269999999999999          1.4585370995403773E-026
  -2.2199999999999998          1.6976201939438621E-027
  -2.2130000000000001         -1.8831528832808576E-026
  -2.2060000000000000         -1.8709819304787036E-026
  -2.1989999999999998          9.9054598381559420E-027
  -2.1919999999999997          3.4542234561413410E-026